LAMMPS data file via write_data, version 23 May 2014, timestep = 100000

1628 atoms
9 atom types
1542 bonds
6 bond types
1541 angles
5 angle types
800 dihedrals
3 dihedral types

-1.3932019019004542e+00 6.3183204901040334e+01 xlo xhi
-2.0282029014864982e+00 6.2548203901751350e+01 ylo yhi
2.6567950988131699e+00 6.7233201902428419e+01 zlo zhi

Masses

1 43.0454
2 30.0264
3 76.098
4 42.081
5 30.0497
6 43.0687
7 43.0454
8 30.0497
9 43.0687

Bond Coeffs # harmonic

1 16.8555 2.563
2 60.9095 3.221
3 55.669 3.481
4 18.0216 2.62
5 36 4
6 36 4

Angle Coeffs # harmonic

1 4 171
2 11.36 114.4
3 35.35 93.6
4 19.15 120
5 19.15 120

Dihedral Coeffs

1 dih1.xvg DIH_TABLE1  
2 dih2.xvg DIH_TABLE2  
3 dih3.xvg DIH_TABLE3  

Atoms # full

1309 231 3 0.0000000000000000e+00 4.4148628707212820e+00 6.4170078583020740e-01 8.4252064275271330e+00 0 1 0
1308 231 2 0.0000000000000000e+00 1.5753014020823599e+00 -6.7686929065633517e-01 9.3296623178539289e+00 0 1 0
1310 231 4 0.0000000000000000e+00 7.6210535844037741e+00 3.5383828274775364e-01 9.8673149312749864e+00 0 1 0
641 135 1 0.0000000000000000e+00 1.7465542542217221e+00 4.6083626251221892e+00 1.0574743268748362e+01 0 1 0
1058 195 4 0.0000000000000000e+00 8.4233897112665819e+00 5.5815361910253118e+00 5.4415416825904410e+00 0 1 0
1307 231 7 0.0000000000000000e+00 -9.5635256135164465e-02 -1.7958868603311480e+00 1.1200544824066966e+01 0 1 0
640 135 2 0.0000000000000000e+00 3.1282523664449800e-02 5.7398358297057213e+00 1.1908634654856611e+01 0 1 0
1311 231 3 0.0000000000000000e+00 6.5839192556467063e+00 1.3167474571370446e+00 1.3176670548022431e+01 0 1 0
842 164 3 0.0000000000000000e+00 5.5938529632398195e+00 8.4330979438228990e+00 1.0061024715378544e+01 -1 -1 1
843 164 2 0.0000000000000000e+00 3.8554473083730199e+00 8.4518254799391084e+00 1.2760040020631015e+01 -1 -1 1
1312 231 2 0.0000000000000000e+00 3.4886552952216592e+00 2.0161895477325675e+00 1.3389421862510124e+01 0 1 0
1057 195 3 0.0000000000000000e+00 1.1423844552600714e+01 7.0414709219345060e+00 4.2074482781534792e+00 0 1 0
1419 247 1 0.0000000000000000e+00 1.1096072432911763e+01 4.4725461933776121e+00 1.0087863612310279e+01 0 2 0
163 55 5 0.0000000000000000e+00 1.6447244436530397e+01 -1.7835859706130317e+00 6.9601795711220937e+00 2 0 1
1420 247 2 0.0000000000000000e+00 1.0478533503853653e+01 6.0062584069467544e+00 1.2189949024263479e+01 0 2 0
567 125 3 0.0000000000000000e+00 1.6792097196935430e+01 4.9562397758077585e+00 7.0590649850166809e+00 0 -1 -1
566 125 2 0.0000000000000000e+00 1.5110774136671948e+01 5.8744088427211576e+00 9.5846797419223986e+00 0 -1 -1
568 125 4 0.0000000000000000e+00 1.7608289550169605e+01 7.6908517805925767e+00 5.2018269429500021e+00 0 -1 -1
565 125 1 0.0000000000000000e+00 1.4050393378304975e+01 7.7068019074654321e+00 1.1111836961917325e+01 0 -1 -1
1236 220 7 0.0000000000000000e+00 2.0826164957466112e+01 1.7919696302769412e+00 4.1806071478066507e+00 0 1 1
134 45 6 0.0000000000000000e+00 2.6014014527531828e+01 1.5088067037602051e+00 7.5301630200431839e+00 1 1 0
133 45 5 0.0000000000000000e+00 2.4454609952462938e+01 2.7971351835302696e+00 5.6600422390727818e+00 1 1 0
135 45 5 0.0000000000000000e+00 2.5851777875066844e+01 -1.0742435262434686e+00 7.7082088921794583e+00 1 1 0
1200 215 2 0.0000000000000000e+00 2.5486419940166286e+01 7.9260448851828951e+00 1.0170327439702616e+01 0 0 0
1201 215 7 0.0000000000000000e+00 2.7391255018746680e+01 6.6690976419742460e+00 9.9097521270606865e+00 0 0 0
22 8 5 0.0000000000000000e+00 3.0882461784156916e+01 7.0305042511527898e+00 7.8957121680894922e+00 0 -1 0
1319 232 2 0.0000000000000000e+00 2.4787619266113964e+01 -1.9905259656887528e+00 1.2390968301958230e+01 -1 1 0
23 8 6 0.0000000000000000e+00 3.2833767244918405e+01 6.6697567007160874e+00 9.3146352769385246e+00 0 -1 0
24 8 5 0.0000000000000000e+00 3.3140157080419165e+01 5.4410318597972127e+00 1.1655481866313240e+01 0 -1 0
1067 196 2 0.0000000000000000e+00 4.0143146664736648e+01 -2.4886212419994996e-01 2.9752665264058322e+00 0 0 0
1066 196 3 0.0000000000000000e+00 3.8655362724774932e+01 6.2257864725177614e-01 5.7022810089832374e+00 0 0 0
1065 196 4 0.0000000000000000e+00 4.0133050901734904e+01 3.8869670785787616e+00 6.1045628123760505e+00 0 0 0
1150 208 3 0.0000000000000000e+00 4.9107164384580891e+01 1.3435090987205871e+00 1.1219486894940152e+01 0 0 0
1151 208 2 0.0000000000000000e+00 4.7092035870002199e+01 3.6154491108384139e+00 1.1990195833857857e+01 0 0 0
1453 251 1 0.0000000000000000e+00 4.9386201728766110e+01 7.0487162592651060e+00 9.8402036328107627e+00 -1 0 1
1452 251 2 0.0000000000000000e+00 4.9443736177726848e+01 7.8142433865787408e+00 7.4756781721648728e+00 -1 0 1
1152 208 7 0.0000000000000000e+00 4.5592421370234867e+01 5.2409303520003006e+00 1.3135703572557130e+01 0 0 0
1447 251 1 0.0000000000000000e+00 4.4387550408426407e+01 6.6631237760834292e+00 9.4227147552353880e+00 -1 0 1
444 107 2 0.0000000000000000e+00 4.9913235768238948e+01 1.7355610914920538e-01 4.6418128929619131e+00 0 0 1
445 107 1 0.0000000000000000e+00 5.1233067970060048e+01 2.1040452704563166e+00 5.7361864348221765e+00 0 0 1
1451 251 3 0.0000000000000000e+00 4.9926110153164593e+01 8.5502045623556562e+00 4.3910770979000713e+00 -1 0 1
1149 208 4 0.0000000000000000e+00 4.8605738787011944e+01 -1.6357975277922039e+00 1.2966489813565195e+01 0 0 0
1064 196 3 0.0000000000000000e+00 4.1881862507980166e+01 3.5217975025477442e+00 3.0388001159059375e+00 0 0 0
636 135 2 0.0000000000000000e+00 5.7509396557960933e+01 6.2240381416560382e+00 1.1063885326320774e+01 -1 1 0
635 135 7 0.0000000000000000e+00 5.6989098879824681e+01 3.6981222111529002e+00 1.0828868637523517e+01 -1 1 0
80 27 9 0.0000000000000000e+00 6.0567379949217575e+01 -9.7346100133207347e-01 1.1179298985994381e+01 0 1 2
81 27 8 0.0000000000000000e+00 5.9426097202386693e+01 6.5920647831642665e-01 9.5732045755651765e+00 0 1 2
451 108 2 0.0000000000000000e+00 5.3095194231838825e+01 -1.7498898862138805e+00 6.3806259177867091e+00 0 0 0
452 108 1 0.0000000000000000e+00 5.4106121918918276e+01 -2.0137532184110825e+00 3.9944469297959810e+00 0 0 0
446 108 7 0.0000000000000000e+00 5.8277261766907742e+01 -1.2468954496943017e+00 6.1345139161463944e+00 0 0 0
79 27 5 0.0000000000000000e+00 5.9024213034154705e+01 -1.9907938020289424e+00 1.3003502814744758e+01 0 1 2
838 164 1 0.0000000000000000e+00 9.7874478170739776e-01 1.1463147816889368e+01 1.1133989773991731e+01 -1 -1 1
839 164 2 0.0000000000000000e+00 3.2975915234631414e+00 1.2538009090155860e+01 1.1823612610418104e+01 -1 -1 1
840 164 3 0.0000000000000000e+00 6.3786812001191162e+00 1.2820943748427828e+01 1.2511065055126895e+01 -1 -1 1
841 164 4 0.0000000000000000e+00 7.7534121810840455e+00 1.1197636537040234e+01 9.6694194325000709e+00 -1 -1 1
960 181 4 0.0000000000000000e+00 3.4358701617956791e+00 1.3802129964523074e+01 5.5375796052742645e+00 0 1 1
959 181 3 0.0000000000000000e+00 4.9504186935798780e+00 1.6856297945349660e+01 6.0619002133896913e+00 0 1 1
958 181 2 0.0000000000000000e+00 7.3961157946556391e+00 1.7845292765050910e+01 4.1469234742578340e+00 0 1 1
569 125 3 0.0000000000000000e+00 1.6369726935268666e+01 1.0230695479859117e+01 7.2314262905751390e+00 0 -1 -1
571 125 1 0.0000000000000000e+00 1.1752461979595823e+01 1.3217011380068410e+01 6.0844896837002045e+00 0 -1 -1
570 125 2 0.0000000000000000e+00 1.3743533311662398e+01 1.1623746195995878e+01 6.0879293671971961e+00 0 -1 -1
215 72 9 0.0000000000000000e+00 1.7256947158820900e+01 1.8794776658257017e+01 7.1337057825044043e+00 0 0 -1
431 105 7 0.0000000000000000e+00 1.9938294493381800e+01 1.8063687262381062e+01 1.2334195228599940e+01 1 1 0
1111 203 1 0.0000000000000000e+00 1.6782488465481073e+01 1.4806367049897426e+01 2.7309336743418449e+00 0 0 0
216 72 8 0.0000000000000000e+00 1.7028531296575625e+01 1.9100488188673509e+01 9.6483048040031569e+00 0 0 -1
214 72 5 0.0000000000000000e+00 1.5037416273866247e+01 1.8107847809153302e+01 6.1327020372110344e+00 0 0 -1
425 105 7 0.0000000000000000e+00 1.3177691911281249e+01 1.9264863293733601e+01 1.0751726649295305e+01 1 1 0
1195 215 1 0.0000000000000000e+00 2.3304913611523695e+01 9.0053321016356040e+00 6.6868647138853152e+00 0 0 0
1117 203 7 0.0000000000000000e+00 2.0601150576698529e+01 1.8078768332089069e+01 4.9367266795868190e+00 0 0 0
1116 203 2 0.0000000000000000e+00 2.0916591557226766e+01 1.8760702981393052e+01 2.6885287362541548e+00 0 0 0
1199 215 3 0.0000000000000000e+00 2.4210707988243470e+01 1.0612801380527449e+01 1.1210503743404010e+01 0 0 0
1196 215 2 0.0000000000000000e+00 2.5501327849621998e+01 1.0224865746024454e+01 6.8193012463777993e+00 0 0 0
1197 215 3 0.0000000000000000e+00 2.7791365405746802e+01 1.1835218848814305e+01 8.4418324021174609e+00 0 0 0
1198 215 4 0.0000000000000000e+00 2.7102608323707248e+01 1.2476156514451070e+01 1.1608282050767196e+01 0 0 0
1257 223 1 0.0000000000000000e+00 3.8664582295337979e+01 1.2768836549136909e+01 4.2093413540131133e+00 0 1 -1
1039 192 2 0.0000000000000000e+00 3.6587971552220154e+01 1.6035942315897220e+01 1.2863597670123459e+01 0 1 2
1260 224 3 0.0000000000000000e+00 4.0477720070171394e+01 1.7153198337405961e+01 5.1644691315126421e+00 0 0 1
1259 224 2 0.0000000000000000e+00 3.9012849389993079e+01 1.6340341438513597e+01 7.9781376545677203e+00 0 0 1
1258 224 1 0.0000000000000000e+00 3.9337734737693900e+01 1.4410324115571449e+01 9.2851583621643972e+00 0 0 1
1256 223 2 0.0000000000000000e+00 3.6423829953173318e+01 1.3532739065234317e+01 3.1096900271660259e+00 0 1 -1
1040 192 1 0.0000000000000000e+00 3.7071565795080133e+01 1.8205446671378606e+01 1.1847005909370235e+01 0 1 2
1261 224 4 0.0000000000000000e+00 4.3929657586819758e+01 1.7633269660637659e+01 5.0844259314525386e+00 0 0 1
1448 251 2 0.0000000000000000e+00 4.4611844422860571e+01 8.9891366758122988e+00 8.5772940667653632e+00 -1 0 1
1450 251 4 0.0000000000000000e+00 4.6989517807495801e+01 1.0130600199052596e+01 3.3044136756667104e+00 -1 0 1
1449 251 3 0.0000000000000000e+00 4.5718191822462039e+01 1.1166254576726059e+01 6.5538486098890818e+00 -1 0 1
331 91 3 0.0000000000000000e+00 4.9916305161335607e+01 1.6574168640193655e+01 5.1086588728956848e+00 1 0 1
637 135 3 0.0000000000000000e+00 5.8743225249583119e+01 9.1763484985934518e+00 1.0652351487694862e+01 -1 1 0
1444 250 3 0.0000000000000000e+00 6.2783674014689609e+01 1.7727117461218878e+01 1.2062493194514502e+01 -1 1 1
1441 250 2 0.0000000000000000e+00 5.7704644352115331e+01 1.5214809957981629e+01 1.1395291655732755e+01 -1 1 1
1440 250 1 0.0000000000000000e+00 5.5892266918866703e+01 1.5204407717163630e+01 9.6868218844877738e+00 -1 1 1
1446 250 1 0.0000000000000000e+00 5.9278216408959779e+01 1.7851839372962573e+01 7.4827018651102888e+00 -1 1 1
1445 250 2 0.0000000000000000e+00 6.0743234445103703e+01 1.7665200077637493e+01 9.5826038334168064e+00 -1 1 1
330 91 4 0.0000000000000000e+00 5.3081444552872547e+01 1.4936045731143080e+01 5.1556002054864951e+00 1 0 1
1590 271 4 0.0000000000000000e+00 7.6144908078633486e+00 2.4432327279902697e+01 1.2026874241261430e+01 1 0 1
1591 271 3 0.0000000000000000e+00 7.4885005763408188e+00 2.2983148277121170e+01 8.8302680813239078e+00 1 0 1
1593 271 1 0.0000000000000000e+00 3.5873598804542026e+00 2.3897778540320811e+01 4.6219837942222632e+00 1 0 1
1592 271 2 0.0000000000000000e+00 5.0074616912226615e+00 2.3950232278933193e+01 6.8630302612916783e+00 1 0 1
1588 271 2 0.0000000000000000e+00 5.0412243756463013e+00 2.8652040168093478e+01 8.9388493080134150e+00 1 0 1
1589 271 3 0.0000000000000000e+00 4.6611824994103177e+00 2.6133159681037867e+01 1.1146053644640055e+01 1 0 1
659 138 4 0.0000000000000000e+00 2.0630013920759454e+00 2.9287573929789531e+01 5.1713191359857644e+00 1 0 1
660 138 3 0.0000000000000000e+00 4.8451255529575947e+00 2.9967043069285797e+01 3.2460345641213375e+00 1 0 1
871 168 2 0.0000000000000000e+00 1.6048776562792650e+01 2.9561550234983784e+01 4.1220295609897919e+00 1 0 0
869 168 4 0.0000000000000000e+00 1.1559049532949199e+01 2.7363762798604071e+01 4.1022573440583097e+00 1 0 0
1078 198 3 0.0000000000000000e+00 2.6991720569285416e+01 2.4094062451382641e+01 7.1317943548921008e+00 0 0 0
1079 198 4 0.0000000000000000e+00 2.7700859655854181e+01 2.2703534569126099e+01 3.9478737475537597e+00 0 0 0
1076 198 7 0.0000000000000000e+00 2.8487430344150091e+01 2.9693120957553955e+01 7.3290998494267949e+00 0 0 0
1077 198 2 0.0000000000000000e+00 2.7712836610475879e+01 2.7195660526398779e+01 7.6719421252047617e+00 0 0 0
747 151 7 0.0000000000000000e+00 2.3965258429569964e+01 2.7451114034926302e+01 3.6833766028599708e+00 -1 0 1
1080 198 3 0.0000000000000000e+00 2.9978560438943582e+01 2.4967086600088972e+01 2.9600106868567155e+00 0 0 0
1082 198 1 0.0000000000000000e+00 3.2565269624700086e+01 2.6789774362718092e+01 7.7964551199479786e+00 0 0 0
1081 198 2 0.0000000000000000e+00 3.1661102987082440e+01 2.6298358100861183e+01 5.3904336592023814e+00 0 0 0
1411 245 1 0.0000000000000000e+00 3.1345582937727819e+01 2.2636032917634804e+01 1.1347447324266144e+01 0 2 1
928 176 1 0.0000000000000000e+00 4.0911576638945206e+01 2.2324263836698329e+01 1.3202577586397890e+01 1 1 1
1263 224 2 0.0000000000000000e+00 4.1244965368791249e+01 2.2008294662751222e+01 7.7483687633516087e+00 0 0 1
1264 224 1 0.0000000000000000e+00 4.0011875376586019e+01 2.3875010098036970e+01 9.0994169257795878e+00 0 0 1
1410 245 2 0.0000000000000000e+00 3.1354365611921487e+01 2.4454256679683727e+01 1.3041615040972648e+01 0 2 1
1262 224 3 0.0000000000000000e+00 4.3493572040121251e+01 1.9639156246289378e+01 7.8977921452684949e+00 0 0 1
333 91 7 0.0000000000000000e+00 4.9101259838213785e+01 2.2207605120050438e+01 5.1744228534966172e+00 1 0 1
332 91 2 0.0000000000000000e+00 4.9849784086733919e+01 1.9766689921826583e+01 5.1465951253151134e+00 1 0 1
627 133 1 0.0000000000000000e+00 5.1625354563249374e+01 2.4850009757792197e+01 1.1917886720020975e+01 0 0 1
166 56 5 0.0000000000000000e+00 5.1629289268039663e+01 2.5389278159179359e+01 4.5373409845529649e+00 0 1 1
167 56 9 0.0000000000000000e+00 5.1617768020473854e+01 2.7706183626582249e+01 5.5435196655323065e+00 0 1 1
927 176 2 0.0000000000000000e+00 4.2890979171212102e+01 2.0707389139892591e+01 1.3208674376253384e+01 1 1 1
726 148 1 0.0000000000000000e+00 4.5425318320877736e+01 2.9131667213251497e+01 3.5163545962943541e+00 0 0 1
168 56 5 0.0000000000000000e+00 5.3894513538411978e+01 2.8407026577239751e+01 7.0500770754122604e+00 0 1 1
1221 218 2 0.0000000000000000e+00 6.2288142346398018e+01 2.9227192872044085e+01 1.2714944831642981e+01 0 0 1
626 133 2 0.0000000000000000e+00 5.3800383100793013e+01 2.4519373334335729e+01 1.2890388649677844e+01 0 0 1
625 133 3 0.0000000000000000e+00 5.6855611924380277e+01 2.3676296958905450e+01 1.2569760284816994e+01 0 0 1
624 133 4 0.0000000000000000e+00 5.7152003724267921e+01 2.0324962159578035e+01 1.2071130278995550e+01 0 0 1
319 89 1 0.0000000000000000e+00 5.8057914500766884e+01 2.4361692664418069e+01 3.2857653467316332e+00 -1 0 1
1587 271 1 0.0000000000000000e+00 6.4534085740540084e+00 3.0791495212763511e+01 7.8985228327140051e+00 1 0 1
1044 193 4 0.0000000000000000e+00 7.2181102769207772e-01 4.0055395524916761e+01 1.1351278612167180e+01 1 0 0
662 138 7 0.0000000000000000e+00 5.1017631031296506e+00 3.5264691808532092e+01 4.2543870565503559e+00 1 0 1
61 21 5 0.0000000000000000e+00 6.5865080372721776e+00 3.8732367468445588e+01 3.0036955060341226e+00 1 1 2
1220 218 3 0.0000000000000000e+00 -1.1194150765072530e+00 3.1737523337554379e+01 1.1113483559502281e+01 1 0 1
658 138 3 0.0000000000000000e+00 1.1171016154445682e-01 3.1856386419677882e+01 3.7155856095961157e+00 1 0 1
661 138 2 0.0000000000000000e+00 5.8003969653675602e+00 3.3058102058568473e+01 3.2365171493316547e+00 1 0 1
1219 218 4 0.0000000000000000e+00 9.4808101799412570e-01 3.3692003496634626e+01 1.3020548197310438e+01 1 0 1
1241 221 3 0.0000000000000000e+00 6.9477141735150409e+00 3.3774928485719180e+01 1.2276737015019902e+01 0 -1 1
868 168 3 0.0000000000000000e+00 1.1916688681003150e+01 3.0379230673016576e+01 5.7605444200805360e+00 1 0 0
867 168 2 0.0000000000000000e+00 1.0822202544622659e+01 3.2873178992466940e+01 4.1436198514977072e+00 1 0 0
866 168 1 0.0000000000000000e+00 1.0276226171639339e+01 3.5238868289650028e+01 3.4479914592752445e+00 1 0 0
49 17 8 0.0000000000000000e+00 1.4285454915779434e+01 3.7979127859193426e+01 1.2083638371443902e+01 -1 1 1
50 17 6 0.0000000000000000e+00 1.5613655488620553e+01 3.9151239204642629e+01 9.9799530511507388e+00 -1 1 1
872 168 7 0.0000000000000000e+00 1.6721837346097718e+01 3.0740721198540733e+01 6.5297652566805171e+00 1 0 0
1243 221 7 0.0000000000000000e+00 1.2303512123090055e+01 3.4437736027002522e+01 1.1936861872838785e+01 0 -1 1
21 7 5 0.0000000000000000e+00 1.8301182527559526e+01 3.4752453649522387e+01 6.9490732136436657e+00 0 0 1
1168 211 2 0.0000000000000000e+00 1.9990440156631248e+01 3.9763089184348836e+01 5.0382252605469500e+00 0 -1 0
1167 211 1 0.0000000000000000e+00 1.9189364534980388e+01 4.0942097607776986e+01 7.3926007977450503e+00 0 -1 0
1242 221 2 0.0000000000000000e+00 9.9603635685329301e+00 3.4559477948060348e+01 1.2013738266690664e+01 0 -1 1
217 73 5 0.0000000000000000e+00 2.6625993616824818e+01 3.2253532296487315e+01 4.8539745847446580e+00 0 0 0
218 73 9 0.0000000000000000e+00 2.5282880752195201e+01 3.1066251682267467e+01 3.0381306965842576e+00 0 0 0
20 7 6 0.0000000000000000e+00 2.0294188328745431e+01 3.5996969185049430e+01 6.8029041228676741e+00 0 0 1
19 7 5 0.0000000000000000e+00 2.2027797624283064e+01 3.4521923186263670e+01 7.9214546236875885e+00 0 0 1
583 127 3 0.0000000000000000e+00 2.2250706265159231e+01 3.6604730686500261e+01 1.2687398480637025e+01 0 0 1
585 127 7 0.0000000000000000e+00 2.0626451576436573e+01 3.1343485741904743e+01 1.3340894876442350e+01 0 0 1
287 85 3 0.0000000000000000e+00 2.6711223637489251e+01 4.1002553479788581e+01 1.0650234508789868e+01 0 0 0
584 127 2 0.0000000000000000e+00 2.0842935159810150e+01 3.3838945500931047e+01 1.2740261300376828e+01 0 0 1
1071 197 3 0.0000000000000000e+00 3.1115320271793738e+01 3.6263078256906311e+01 4.2982628042006530e+00 0 0 0
1072 197 4 0.0000000000000000e+00 3.3405957748395664e+01 3.6777387061743013e+01 6.9263669394113521e+00 0 0 0
1074 197 2 0.0000000000000000e+00 3.5573705854376485e+01 3.2957000171250712e+01 3.3288955798991227e+00 0 0 0
1073 197 3 0.0000000000000000e+00 3.6013751900391824e+01 3.5569719196935047e+01 5.0112066906896411e+00 0 0 0
1223 219 7 0.0000000000000000e+00 4.1273568540284963e+01 3.8322865038744077e+01 8.3879615421784788e+00 0 0 1
1224 219 2 0.0000000000000000e+00 4.0618431805086374e+01 4.0681900110522193e+01 9.2538649028050308e+00 0 0 1
1075 197 1 0.0000000000000000e+00 3.3999073934165907e+01 3.1014365469323657e+01 2.7780535866718803e+00 0 0 0
588 128 3 0.0000000000000000e+00 5.0679201800680929e+01 3.5025779049143637e+01 1.1600188711488007e+01 0 0 1
592 128 7 0.0000000000000000e+00 4.4672342882504886e+01 3.2716664259733989e+01 9.2897174217933500e+00 0 0 1
150 50 8 0.0000000000000000e+00 4.5114292153525547e+01 3.7573177213368993e+01 7.5933041520794662e+00 0 -1 0
591 128 2 0.0000000000000000e+00 4.6493755469919151e+01 3.2313836094666087e+01 1.1039323458320125e+01 0 0 1
586 128 1 0.0000000000000000e+00 4.5448566339000628e+01 3.7221901901036460e+01 1.1727980686420240e+01 0 0 1
587 128 2 0.0000000000000000e+00 4.7601268814724726e+01 3.5951732582095438e+01 1.1816051798190626e+01 0 0 1
795 157 7 0.0000000000000000e+00 5.1044492592117990e+01 3.4784843042941205e+01 6.4328602238262169e+00 1 0 0
148 50 5 0.0000000000000000e+00 4.7426406289332277e+01 3.5155244363234154e+01 4.6325322015199175e+00 0 -1 0
149 50 9 0.0000000000000000e+00 4.5376791972073292e+01 3.5318705685568283e+01 6.4364566495175435e+00 0 -1 0
112 38 5 0.0000000000000000e+00 5.1751776185256119e+01 3.8307141473177033e+01 8.0635917158053445e+00 1 0 1
790 157 2 0.0000000000000000e+00 4.9308358198895910e+01 3.2148520118225704e+01 3.1544206455393602e+00 1 0 0
789 157 7 0.0000000000000000e+00 4.8991853125620906e+01 3.0774161925399490e+01 5.2139684512161946e+00 1 0 0
1334 234 7 0.0000000000000000e+00 4.7071604836243850e+01 4.0438442885247547e+01 5.5816858962824050e+00 0 0 1
1046 193 2 0.0000000000000000e+00 6.1598059337843893e+01 3.6283930737169534e+01 1.3417880923838430e+01 0 0 0
1045 193 3 0.0000000000000000e+00 6.2009809534254572e+01 3.9120670109749121e+01 1.2056646046427991e+01 0 0 0
794 157 2 0.0000000000000000e+00 5.2858705115694455e+01 3.4669905938021451e+01 4.8304308660511763e+00 1 0 0
114 38 8 0.0000000000000000e+00 5.4399065198776327e+01 3.8270235939346939e+01 1.1411881563839323e+01 1 0 1
113 38 6 0.0000000000000000e+00 5.4085683906773113e+01 3.7487293973348329e+01 8.9521103121212775e+00 1 0 1
1335 235 7 0.0000000000000000e+00 2.4890831844789347e+00 4.1557733631401945e+01 5.4584167991957031e+00 1 1 0
1336 235 2 0.0000000000000000e+00 7.0712367647814955e-01 4.3563313286281129e+01 5.0009977823899678e+00 1 1 0
1340 235 2 0.0000000000000000e+00 3.0688096474141160e+00 4.5801894379900183e+01 7.6266607904594430e+00 1 1 0
1339 235 3 0.0000000000000000e+00 1.5999275332823992e+00 4.8777136331010119e+01 7.6210205887994666e+00 1 1 0
1341 235 1 0.0000000000000000e+00 4.5240264588614796e+00 4.3696291359389186e+01 8.0165371516729671e+00 1 1 0
1338 235 4 0.0000000000000000e+00 -1.0347541036023316e+00 4.9251538756050635e+01 5.5136471550717392e+00 1 1 0
1175 212 2 0.0000000000000000e+00 9.3266773795294498e+00 5.0196617236971868e+01 4.8954043181461220e+00 0 -1 1
1337 235 3 0.0000000000000000e+00 -7.5025251111212921e-01 4.6329580997188849e+01 3.8301690756003035e+00 1 1 0
1172 211 2 0.0000000000000000e+00 1.5621301517872302e+01 4.2035150934526321e+01 4.5044848181188639e+00 0 -1 0
1173 211 7 0.0000000000000000e+00 1.5143309468050125e+01 4.3344265775324281e+01 6.7477497049083182e+00 0 -1 0
51 17 8 0.0000000000000000e+00 1.5943583329296491e+01 4.1311166697425364e+01 9.9716519076469723e+00 -1 1 1
291 85 7 0.0000000000000000e+00 1.9080315598741890e+01 4.2605909189882190e+01 1.2115501762409041e+01 0 0 0
1176 212 3 0.0000000000000000e+00 1.1425227319100212e+01 5.1193354062024746e+01 7.1664024580941454e+00 0 -1 1
290 85 2 0.0000000000000000e+00 2.1008213682233858e+01 4.3516424010700234e+01 1.1005463578413263e+01 0 0 0
286 85 2 0.0000000000000000e+00 2.7886565581038081e+01 4.3739241873985392e+01 1.2015378840379190e+01 0 0 0
289 85 3 0.0000000000000000e+00 2.3452180278599311e+01 4.4618487380502977e+01 9.3433227096230045e+00 0 0 0
288 85 4 0.0000000000000000e+00 2.5486007141179478e+01 4.2472211049277149e+01 7.6550011367637714e+00 0 0 0
285 85 1 0.0000000000000000e+00 2.8632111979940593e+01 4.6439702026723701e+01 1.2041200958139687e+01 0 0 0
498 115 4 0.0000000000000000e+00 3.8114178135032439e+01 4.9225848454827123e+01 2.8183724809274926e+00 0 0 1
295 86 4 0.0000000000000000e+00 3.2021409297558421e+01 5.0696300112477395e+01 1.0756496163313951e+01 1 0 1
1329 234 2 0.0000000000000000e+00 4.1524918880568634e+01 4.3334393757969110e+01 6.2850107326916289e+00 0 0 1
1225 219 3 0.0000000000000000e+00 3.9897985392071661e+01 4.2990259399792677e+01 1.1301754743162176e+01 0 0 1
1328 234 7 0.0000000000000000e+00 4.1838201918953807e+01 4.1110947108183467e+01 5.3410943406656868e+00 0 0 1
1330 234 3 0.0000000000000000e+00 4.1795654343982150e+01 4.6552784308037893e+01 7.0217745330438497e+00 0 0 1
1331 234 4 0.0000000000000000e+00 4.4310300850059733e+01 4.8221947804140278e+01 5.2188047182252397e+00 0 0 1
1332 234 3 0.0000000000000000e+00 4.6588696209473866e+01 4.5849403437756514e+01 6.3278633705827234e+00 0 0 1
1333 234 2 0.0000000000000000e+00 4.6101434007516666e+01 4.2618185291666784e+01 5.9833439116435398e+00 0 0 1
1229 219 1 0.0000000000000000e+00 4.6804991820843952e+01 4.4805556839048570e+01 1.3267350918966024e+01 0 0 1
1497 258 2 0.0000000000000000e+00 5.6189850873100049e+01 4.5248827441038266e+01 5.6317563083595692e+00 0 0 1
1496 258 1 0.0000000000000000e+00 5.7037104803145020e+01 4.6452866354448318e+01 3.7250560321243569e+00 0 0 1
1500 258 3 0.0000000000000000e+00 5.9814636872250212e+01 4.9090207931574987e+01 9.5270180217089742e+00 0 0 1
1499 258 4 0.0000000000000000e+00 5.6604900666113501e+01 4.8326888608699505e+01 1.0549705208800610e+01 0 0 1
1498 258 3 0.0000000000000000e+00 5.6535742865999040e+01 4.5369143370398469e+01 8.7927636656239923e+00 0 0 1
1180 212 1 0.0000000000000000e+00 4.2063775978121063e+00 5.2795326348962263e+01 4.5727915688173129e+00 0 -1 1
1179 212 2 0.0000000000000000e+00 6.6716089400206240e+00 5.3231262506276714e+01 5.2216055559921175e+00 0 -1 1
680 141 4 0.0000000000000000e+00 4.6746566219650854e+00 5.8481657883603503e+01 3.0477980289460405e+00 0 -1 0
681 141 3 0.0000000000000000e+00 1.6401931576503705e+00 5.7144961532613387e+01 3.8180519369140695e+00 0 -1 0
1178 212 3 0.0000000000000000e+00 8.8463424223239358e+00 5.5402643515055800e+01 6.3243716136699808e+00 0 -1 1
1621 275 1 0.0000000000000000e+00 6.1870762723698745e+00 5.4761483142830727e+01 1.3072654924103269e+01 0 0 0
164 55 6 0.0000000000000000e+00 1.4459866356983985e+01 6.1038833720261103e+01 7.6653045487787264e+00 2 -1 1
165 55 5 0.0000000000000000e+00 1.5053558275437535e+01 5.8589812684475547e+01 8.1301287096001111e+00 2 -1 1
1177 212 4 0.0000000000000000e+00 1.2280451593964674e+01 5.4543975101347669e+01 6.7285188561465956e+00 0 -1 1
1506 259 4 0.0000000000000000e+00 1.7858550634539064e+01 5.2262297302292502e+01 5.0177620164669223e+00 -1 0 1
1507 259 3 0.0000000000000000e+00 1.7049998857883633e+01 5.5085934662378385e+01 3.1615370557598412e+00 -1 0 1
1314 232 1 0.0000000000000000e+00 1.9941707627567268e+01 6.1185279192109938e+01 1.2981708563365093e+01 -1 0 0
294 86 3 0.0000000000000000e+00 3.0742654186240539e+01 5.2747809390662198e+01 8.2754819126977210e+00 1 0 1
1505 259 3 0.0000000000000000e+00 2.1297055818301377e+01 5.2362980135252741e+01 4.4190322948429008e+00 -1 0 1
1317 232 4 0.0000000000000000e+00 2.6436926149450620e+01 5.7151414937108498e+01 1.1314092654344599e+01 -1 0 0
1318 232 3 0.0000000000000000e+00 2.6107585386433083e+01 6.0436866951072069e+01 1.0420096511547841e+01 -1 0 0
714 146 3 0.0000000000000000e+00 2.6903507531358876e+01 5.8332368980942192e+01 2.9764361053727355e+00 0 0 0
292 86 1 0.0000000000000000e+00 3.0608984274906817e+01 5.8111853043293891e+01 7.7796730271829757e+00 1 0 1
713 146 2 0.0000000000000000e+00 2.6813913031771367e+01 5.5068456287767617e+01 2.6939547543251834e+00 0 0 0
1315 232 2 0.0000000000000000e+00 2.1758085796514379e+01 5.9517913284885701e+01 1.2812522960775258e+01 -1 0 0
1504 259 2 0.0000000000000000e+00 2.1814747793329584e+01 5.5151636178452719e+01 3.0914002110360239e+00 -1 0 1
293 86 2 0.0000000000000000e+00 3.1727954807535834e+01 5.5732093135516202e+01 7.4182457939855864e+00 1 0 1
600 130 1 0.0000000000000000e+00 3.8393121752237718e+01 5.9189883402633640e+01 1.0563565311347272e+01 -1 -1 0
606 130 1 0.0000000000000000e+00 3.6454693735145405e+01 5.5105946067895935e+01 9.7504893132846817e+00 -1 -1 0
601 130 2 0.0000000000000000e+00 4.0154970720886212e+01 5.8982937422165676e+01 8.5403560087010781e+00 -1 -1 0
605 130 2 0.0000000000000000e+00 3.5322528449960117e+01 5.6840010726401516e+01 8.3515253088390455e+00 -1 -1 0
604 130 3 0.0000000000000000e+00 3.5365643029919411e+01 5.8738400195115055e+01 5.7714705040954950e+00 -1 -1 0
603 130 4 0.0000000000000000e+00 3.8197447086314398e+01 5.8806437672490411e+01 3.7686594712159507e+00 -1 -1 0
602 130 3 0.0000000000000000e+00 4.0254899142165208e+01 5.7075507456930637e+01 5.9747965343668401e+00 -1 -1 0
296 86 3 0.0000000000000000e+00 3.2727030746987232e+01 5.3062377650585468e+01 1.3223013265579269e+01 1 0 1
340 92 1 0.0000000000000000e+00 4.1143500528514373e+01 5.5615540685541710e+01 1.1518415552727291e+01 -1 0 1
443 107 3 0.0000000000000000e+00 4.8485647549657926e+01 6.1828093797579761e+01 3.9233590174684223e+00 0 -1 1
450 108 3 0.0000000000000000e+00 5.2158493678315601e+01 6.1985661018021588e+01 9.3863577880742390e+00 0 -1 0
339 92 2 0.0000000000000000e+00 4.2349025205067086e+01 5.6643406484610708e+01 1.3413581030478285e+01 -1 0 1
1501 258 2 0.0000000000000000e+00 6.1066509280672030e+01 5.1900182139597192e+01 1.0341829105230190e+01 0 0 1
1502 258 7 0.0000000000000000e+00 6.1333929319287328e+01 5.4492001795063750e+01 1.1455679884205225e+01 0 0 1
447 108 2 0.0000000000000000e+00 5.7236910577554902e+01 6.0921559237133074e+01 6.6364710729867920e+00 0 -1 0
448 108 3 0.0000000000000000e+00 5.5514937120726749e+01 5.8637386875046346e+01 7.8747748890383917e+00 0 -1 0
449 108 4 0.0000000000000000e+00 5.3622314273521376e+01 5.9112354336934054e+01 1.0662999377050721e+01 0 -1 0
1323 233 3 0.0000000000000000e+00 5.9067239329886526e+01 5.1979289039250141e+01 3.2919131247986151e+00 -1 0 1
1322 233 2 0.0000000000000000e+00 6.0126753295258816e+01 5.5107566700763030e+01 2.8489447687755378e+00 -1 0 1
1313 231 1 0.0000000000000000e+00 1.1197828873829825e+00 1.6470257641349846e+00 1.4250694788034474e+01 0 1 0
804 159 2 0.0000000000000000e+00 6.8080106870794310e+00 4.4193346010481749e-01 2.1792074917955208e+01 0 0 0
803 159 1 0.0000000000000000e+00 6.9760664008207076e+00 2.7885470651816373e+00 2.2560862672053858e+01 0 0 0
1423 247 3 0.0000000000000000e+00 7.1035220465352973e+00 5.6756314494714974e+00 1.5574508350962397e+01 0 2 0
809 159 1 0.0000000000000000e+00 2.3050246273334949e+00 2.8003693124678568e+00 1.8778271668008440e+01 0 0 0
808 159 2 0.0000000000000000e+00 2.8119663332100870e+00 5.1833344897934774e-01 1.9755009385656606e+01 0 0 0
807 159 3 0.0000000000000000e+00 1.8591428984271310e+00 -1.8473097492686033e+00 2.1802788127327151e+01 0 0 0
1424 247 2 0.0000000000000000e+00 9.2481547922202036e+00 3.2356429502551056e+00 1.5613281400279883e+01 0 2 0
844 164 1 0.0000000000000000e+00 2.9409049836008228e+00 8.6631499524438826e+00 1.5175185702732211e+01 -1 -1 1
105 35 5 0.0000000000000000e+00 1.4120750322793896e+01 4.4162055532198545e+00 1.3580109986270459e+01 1 1 1
103 35 5 0.0000000000000000e+00 1.8292546442421568e+01 6.3226312259192996e+00 1.3918099702318965e+01 1 1 1
1425 247 7 0.0000000000000000e+00 1.1334451675162633e+01 2.0510822342958508e+00 1.5060723278023012e+01 0 2 0