LAMMPS data file via write_data, version 23 May 2014, timestep = 1000000

814 atoms
9 atom types
851 bonds
6 bond types
989 angles
5 angle types
400 dihedrals
3 dihedral types

5.9128481821343364e+00 5.5877154817865829e+01 xlo xhi
6.1478471821343383e+00 5.6112153817865817e+01 ylo yhi
9.2578471821343378e+00 5.9222153817865831e+01 zlo zhi

Masses

1 43.0454
2 30.0264
3 76.098
4 42.081
5 30.0497
6 43.0687
7 43.0454
8 30.0497
9 43.0687

Bond Coeffs # harmonic

1 16.8555 2.563
2 60.9095 3.221
3 55.669 3.481
4 18.0216 2.62
5 36 4
6 36 4

Angle Coeffs # harmonic

1 4 171
2 11.36 114.4
3 35.35 93.6
4 19.15 120
5 19.15 120

Dihedral Coeffs

1 dih1.xvg DIH_TABLE1  
2 dih2.xvg DIH_TABLE2  
3 dih3.xvg DIH_TABLE3  

Atoms # full

347 72 2 0.0000000000000000e+00 1.3336188112896359e+01 9.6683663634766859e+00 1.7698092224455191e+01 1 0 1
351 72 2 0.0000000000000000e+00 1.1775316420640831e+01 1.3959543703281547e+01 1.6866253377472443e+01 1 0 1
346 72 1 0.0000000000000000e+00 1.5431437010167130e+01 1.0891949596177664e+01 1.7061225978386464e+01 1 0 1
18 6 8 0.0000000000000000e+00 1.5666627596128686e+01 1.7411888922566025e+01 1.7063608768765111e+01 1 1 0
352 72 7 0.0000000000000000e+00 1.3067118918721592e+01 1.5000800292964469e+01 1.8698142959133911e+01 1 0 1
17 6 9 0.0000000000000000e+00 1.7975456222996012e+01 1.6751861299774017e+01 1.6918376610296473e+01 1 1 0
348 72 3 0.0000000000000000e+00 1.0483668032284346e+01 8.3334695757052675e+00 1.7656813563517467e+01 1 0 1
350 72 3 0.0000000000000000e+00 1.0290502037143051e+01 1.2186735531350562e+01 1.4591555566115622e+01 1 0 1
349 72 4 0.0000000000000000e+00 9.3253952773479085e+00 8.9407587769249055e+00 1.4551947341048589e+01 1 0 1
675 119 7 0.0000000000000000e+00 2.0210265060853001e+01 1.8556873352319467e+01 1.4013621037325935e+01 1 1 0
647 115 7 0.0000000000000000e+00 2.0125061623033751e+01 1.1496246970306125e+01 1.8477976208880904e+01 0 0 0
16 6 8 0.0000000000000000e+00 1.9318245533178288e+01 1.5248530826289095e+01 1.8822982336180459e+01 1 1 0
437 85 7 0.0000000000000000e+00 2.1324822386054450e+01 1.7155138831303017e+01 2.1879027350347837e+01 0 -1 1
648 115 2 0.0000000000000000e+00 2.0092342860337162e+01 1.0597651299109179e+01 1.6083063376248631e+01 0 0 0
653 115 7 0.0000000000000000e+00 2.4136076910012154e+01 1.0121431410239724e+01 2.0385739151963257e+01 0 0 0
652 115 2 0.0000000000000000e+00 2.4984866507039886e+01 1.0954338038723879e+01 1.8415467497769985e+01 0 0 0
550 101 2 0.0000000000000000e+00 4.9211552573988136e+01 2.9085351298777709e+01 2.3063104626939520e+01 0 0 0
357 73 3 0.0000000000000000e+00 3.8738816429730846e+01 2.0108325097047143e+01 1.0065302150558001e+01 0 0 1
649 115 3 0.0000000000000000e+00 2.1345903249795249e+01 9.1880758284268627e+00 1.3501346614092817e+01 0 0 0
379 76 2 0.0000000000000000e+00 2.3056020462325804e+01 1.5172070318452908e+01 1.1354693185569953e+01 0 1 1
650 115 4 0.0000000000000000e+00 2.4352917810523156e+01 1.0471314695401125e+01 1.2621874450379771e+01 0 0 0
378 76 3 0.0000000000000000e+00 2.4190141334400213e+01 1.7133917651550707e+01 1.3757789771349016e+01 0 1 1
377 76 4 0.0000000000000000e+00 2.7600513413024441e+01 1.7675013795011637e+01 1.3387276347659331e+01 0 1 1
651 115 3 0.0000000000000000e+00 2.4899763772301160e+01 1.2370014123145657e+01 1.5497771235376687e+01 0 0 0
551 101 3 0.0000000000000000e+00 5.1176687331686622e+01 2.8080294594076893e+01 2.5349741280632028e+01 0 0 0
624 111 2 0.0000000000000000e+00 3.3300244570191651e+01 7.0721579641389996e+00 1.2699714904042118e+01 0 1 0
418 82 3 0.0000000000000000e+00 3.3299394927714289e+01 1.5860659244726984e+01 1.4241168997141340e+01 0 1 -1
417 82 2 0.0000000000000000e+00 3.4573316573856026e+01 1.2822675225466872e+01 1.4635518616467225e+01 0 1 -1
416 82 7 0.0000000000000000e+00 3.6227180588805055e+01 1.0955447602244325e+01 1.4652221687764444e+01 0 1 -1
22 8 8 0.0000000000000000e+00 3.6563421750877801e+01 1.0147612558401852e+01 1.8546954774107377e+01 0 1 0
23 8 6 0.0000000000000000e+00 3.6086634799190527e+01 7.4124023674224002e+00 1.9168804174773303e+01 0 1 0
419 82 4 0.0000000000000000e+00 3.5998864811098777e+01 1.8044161062908035e+01 1.4695264880901584e+01 0 1 -1
420 82 3 0.0000000000000000e+00 3.7087930456520965e+01 1.6660743842307120e+01 1.7800888939391474e+01 0 1 -1
623 111 3 0.0000000000000000e+00 3.3774776674523793e+01 9.2738744483790594e+00 1.0360882997778820e+01 0 1 0
614 110 3 0.0000000000000000e+00 2.0750606761120242e+01 2.7596576711778230e+01 3.4085318967807098e+01 1 0 0
622 111 4 0.0000000000000000e+00 3.7204072189710303e+01 9.3807857631821108e+00 9.6842989619481461e+00 0 1 0
498 93 2 0.0000000000000000e+00 4.9242720402969553e+01 1.9724451896576799e+01 2.2701859812189792e+01 0 0 -1
421 82 2 0.0000000000000000e+00 3.4804491642058146e+01 1.4931279973587218e+01 1.9488513711401644e+01 0 1 -1
422 82 7 0.0000000000000000e+00 3.4525193690189511e+01 1.2945979296232926e+01 2.0753005677683863e+01 0 1 -1
335 70 4 0.0000000000000000e+00 5.4436565433066448e+01 1.6094047660907783e+01 1.8084497004169972e+01 -1 0 1
698 122 3 0.0000000000000000e+00 5.4295435660103976e+01 8.1285810247229637e+00 1.1428681496625309e+01 0 1 1
237 56 4 0.0000000000000000e+00 4.4533807302903490e+01 1.7631643449918691e+01 1.1602262313593867e+01 -1 0 1
258 59 4 0.0000000000000000e+00 4.4030127219611316e+01 2.0135258049990895e+01 2.1469798062247627e+01 0 1 0
681 119 7 0.0000000000000000e+00 1.4539683357054667e+01 2.0292235566531225e+01 1.4487048519547665e+01 1 1 0
680 119 2 0.0000000000000000e+00 1.5439468685265268e+01 2.0021178578851391e+01 1.2166900429935922e+01 1 1 0
334 70 3 0.0000000000000000e+00 6.6327619618708358e+00 1.8525711167046172e+01 1.9237911119150347e+01 0 0 1
679 119 3 0.0000000000000000e+00 1.6609817935661869e+01 2.1971582323154855e+01 9.7768568158134546e+00 1 1 0
333 70 2 0.0000000000000000e+00 8.0660423338866192e+00 2.0712839554702686e+01 1.7334275353875807e+01 0 0 1
332 70 7 0.0000000000000000e+00 9.5875466487007674e+00 2.1769962535633333e+01 1.5607354198575075e+01 0 0 1
58 20 8 0.0000000000000000e+00 8.7050160314106808e+00 2.5317238005549978e+01 1.4306386782818606e+01 0 2 1
639 113 7 0.0000000000000000e+00 9.7620782090722127e+00 2.5979837301047507e+01 1.0552831384382667e+01 -1 1 1
678 119 4 0.0000000000000000e+00 1.7215715682584204e+01 2.5106747710116640e+01 1.1230969553236360e+01 1 1 0
59 20 9 0.0000000000000000e+00 6.6281046790399047e+00 2.6434255476219313e+01 1.5101275015577629e+01 0 2 1
374 76 1 0.0000000000000000e+00 2.1305237925922469e+01 2.0531933767153252e+01 9.4264634237290217e+00 0 1 1
119 39 3 0.0000000000000000e+00 3.7229355276835967e+01 6.4903730990685000e+00 2.7615867553613878e+01 0 0 0
677 119 3 0.0000000000000000e+00 1.8825204969216596e+01 2.3828836832733305e+01 1.3972319827097767e+01 1 1 0
676 119 2 0.0000000000000000e+00 2.0219886247777161e+01 2.1067728912918142e+01 1.3790144754300298e+01 1 1 0
438 85 2 0.0000000000000000e+00 2.2313686250559538e+01 1.9538166274552548e+01 2.1139716494232545e+01 0 -1 1
376 76 3 0.0000000000000000e+00 2.6887134821813270e+01 1.8947450589256839e+01 1.0272793765505277e+01 0 1 1
247 57 7 0.0000000000000000e+00 2.3778906266187757e+01 2.8561789804357815e+01 1.8707694309747957e+01 0 0 1
441 85 3 0.0000000000000000e+00 2.7966802965038898e+01 2.1787462373274110e+01 1.8605534629952913e+01 0 -1 1
442 85 2 0.0000000000000000e+00 2.6246942113842696e+01 2.1782631293059623e+01 1.5932791761600717e+01 0 -1 1
443 85 1 0.0000000000000000e+00 2.4557935834621755e+01 2.3145125228413011e+01 1.4571032764534284e+01 0 -1 1
246 57 2 0.0000000000000000e+00 2.3308736601250423e+01 2.9591368856801157e+01 1.6541282087796152e+01 0 0 1
245 57 3 0.0000000000000000e+00 2.2538373177999070e+01 3.0096989841780577e+01 1.3531798431110026e+01 0 0 1
440 85 4 0.0000000000000000e+00 2.6413544426781861e+01 2.4043359973546362e+01 2.0773830819980660e+01 0 -1 1
331 69 7 0.0000000000000000e+00 2.9254855609047528e+01 2.8198809102426562e+01 2.1479898402360110e+01 0 0 1
330 69 2 0.0000000000000000e+00 3.0056682263976370e+01 3.0388710037424573e+01 2.0496042383105735e+01 0 0 1
439 85 3 0.0000000000000000e+00 2.3056867868883629e+01 2.2713114062007584e+01 2.0794286426265540e+01 0 -1 1
356 73 4 0.0000000000000000e+00 3.6051449635829442e+01 2.2228177389731052e+01 1.0281685610910243e+01 0 0 1
355 73 3 0.0000000000000000e+00 3.8164279224802108e+01 2.4863936250423102e+01 1.1108723789905220e+01 0 0 1
261 59 7 0.0000000000000000e+00 4.0762638290285366e+01 2.7320486419182945e+01 1.9905854013198578e+01 0 1 0
326 69 2 0.0000000000000000e+00 3.4360200046945579e+01 2.9439759931778738e+01 1.8599798334065074e+01 0 0 1
325 69 7 0.0000000000000000e+00 3.5027194269497436e+01 2.7230805394091693e+01 1.9670030767545644e+01 0 0 1
259 59 3 0.0000000000000000e+00 4.1854956020139760e+01 2.1900395739547175e+01 1.9296743645221202e+01 0 1 0
260 59 2 0.0000000000000000e+00 4.1516370660652953e+01 2.5041439502277548e+01 2.0066174138013260e+01 0 1 0
236 56 3 0.0000000000000000e+00 4.7559747640687377e+01 1.8587915318735149e+01 1.0192120257382690e+01 -1 0 1
60 20 8 0.0000000000000000e+00 5.5747812342926402e+01 2.8880012930002685e+01 1.4243305549128111e+01 -1 2 1
198 50 7 0.0000000000000000e+00 7.5905805922598519e+00 3.0736530578329141e+01 1.1121383132508726e+01 0 1 1
645 114 2 0.0000000000000000e+00 4.3784916796197294e+01 2.8205728202441598e+01 1.1902084760574304e+01 0 0 0
338 70 7 0.0000000000000000e+00 5.4063067367293023e+01 2.4156601256195259e+01 1.7016332600240215e+01 -1 0 1
87 29 8 0.0000000000000000e+00 4.9229198459484557e+01 2.7661810972351685e+01 1.0499187896590632e+01 -1 0 1
337 70 2 0.0000000000000000e+00 5.4113758293060926e+01 2.1519727298986616e+01 1.7390805364295250e+01 -1 0 1
336 70 3 0.0000000000000000e+00 5.2749036729495835e+01 1.8687278600513125e+01 1.6552517533573997e+01 -1 0 1
240 56 7 0.0000000000000000e+00 4.7340221658839717e+01 2.4245712266144803e+01 1.0027470921000480e+01 -1 0 1
106 36 8 0.0000000000000000e+00 4.3532715035589327e+01 2.9030362446337183e+01 1.7790508344200461e+01 0 0 0
238 56 3 0.0000000000000000e+00 4.3943561939863805e+01 2.0788187563494755e+01 1.2715652699823695e+01 -1 0 1
239 56 2 0.0000000000000000e+00 4.5732548462439240e+01 2.3209286546677053e+01 1.1630078726164271e+01 -1 0 1
646 114 7 0.0000000000000000e+00 4.4688835834382672e+01 2.7544528659669037e+01 1.4132225266718535e+01 0 0 0
107 36 9 0.0000000000000000e+00 4.5140590063128641e+01 3.0069816837926080e+01 1.9252248740596730e+01 0 0 0
549 101 7 0.0000000000000000e+00 4.7310668351947982e+01 2.7830458351209149e+01 2.1722310741114889e+01 0 0 0
640 114 7 0.0000000000000000e+00 4.7663854048466014e+01 3.0268850458885197e+01 1.3257308154670500e+01 0 0 0
424 83 2 0.0000000000000000e+00 1.1610406748213077e+01 1.2760444224973027e+01 3.3395176883639607e+01 0 1 0
428 83 2 0.0000000000000000e+00 9.9991326648116861e+00 1.3711790090260539e+01 2.9573766014699242e+01 0 1 0
425 83 3 0.0000000000000000e+00 1.3258384069796625e+01 1.5396195703170360e+01 3.2859440938633966e+01 0 1 0
693 121 3 0.0000000000000000e+00 8.7718104173240548e+00 7.7022857678681032e+00 2.5469224191859951e+01 1 0 -1
429 83 1 0.0000000000000000e+00 8.1824605987881274e+00 1.4453137153145322e+01 3.1036416297160820e+01 0 1 0
694 121 2 0.0000000000000000e+00 6.0227817459046982e+00 7.4243381208450421e+00 2.4046016788975489e+01 1 0 -1
790 135 4 0.0000000000000000e+00 1.5404495578158306e+01 9.9891346757903126e+00 3.1341089163146084e+01 0 0 0
427 83 3 0.0000000000000000e+00 1.2710029670792940e+01 1.3607636128496539e+01 2.7818680815249863e+01 0 1 0
426 83 4 0.0000000000000000e+00 1.4753008838358758e+01 1.5723460868397339e+01 2.9708852916318691e+01 0 1 0
740 128 3 0.0000000000000000e+00 5.5094634381490273e+01 2.1567360585357683e+01 3.3209093190774695e+01 -1 0 0
231 55 3 0.0000000000000000e+00 2.5969698163188735e+01 1.0338081928015642e+01 3.2888416894548087e+01 0 1 0
724 126 7 0.0000000000000000e+00 2.6828869189493474e+01 6.8061115994916088e+00 2.5430420101069508e+01 1 0 1
791 135 3 0.0000000000000000e+00 1.7637110445888172e+01 7.2386936304805838e+00 3.0823106883357212e+01 0 0 0
727 126 4 0.0000000000000000e+00 2.3594303255836881e+01 1.3354869012718371e+01 2.8163945410006082e+01 1 0 1
726 126 3 0.0000000000000000e+00 2.5743258423130591e+01 1.2221829501784525e+01 2.5595528416328975e+01 1 0 1
725 126 2 0.0000000000000000e+00 2.6441539165917572e+01 9.1932276422373853e+00 2.6436582438104473e+01 1 0 1
728 126 3 0.0000000000000000e+00 2.0850960958150985e+01 1.2078641541895330e+01 2.6314801412227943e+01 1 0 1
729 126 2 0.0000000000000000e+00 2.0923309086803553e+01 8.8443807857921541e+00 2.6078528899522091e+01 1 0 1
362 74 3 0.0000000000000000e+00 2.8289397872429216e+01 1.7580148912833259e+01 2.8117071363518395e+01 -1 1 1
161 45 3 0.0000000000000000e+00 4.6341168924684254e+01 2.9072598857103891e+01 2.6881707747861260e+01 0 0 1
230 55 4 0.0000000000000000e+00 2.7973008019865080e+01 1.3125752447909417e+01 3.3688214059989576e+01 0 1 0
363 74 4 0.0000000000000000e+00 3.0306140314026802e+01 1.5076281482071924e+01 2.9653800989842324e+01 -1 1 1
154 44 3 0.0000000000000000e+00 3.1789927463884691e+01 7.0100900782051747e+00 2.5387697695400398e+01 0 1 0
364 74 3 0.0000000000000000e+00 3.3331732743264489e+01 1.6798702919936950e+01 2.9165026672492274e+01 -1 1 1
241 57 7 0.0000000000000000e+00 1.4929057750659666e+01 3.1104350546877850e+01 1.2805626539394181e+01 0 0 1
518 96 3 0.0000000000000000e+00 4.3345453741939615e+01 1.6346039674316600e+01 2.9805950576148760e+01 -1 0 0
793 135 7 0.0000000000000000e+00 2.2312515136594087e+01 6.4909920288726610e+00 3.3299311555218338e+01 0 0 0
514 96 1 0.0000000000000000e+00 4.1464519726958521e+01 8.5510035774618398e+00 3.1304704738810546e+01 -1 0 0
517 96 4 0.0000000000000000e+00 4.0595889187603149e+01 1.6808169041853731e+01 3.1956918430959551e+01 -1 0 0
515 96 2 0.0000000000000000e+00 4.1266478497251548e+01 1.1036836598713014e+01 3.1509564123730684e+01 -1 0 0
516 96 3 0.0000000000000000e+00 4.0755271607635322e+01 1.3505642069422553e+01 3.3402686314919606e+01 -1 0 0
644 114 3 0.0000000000000000e+00 4.1860237028234799e+01 2.9311885346473900e+01 9.5957757378334190e+00 0 0 0
494 93 2 0.0000000000000000e+00 5.3752284822040416e+01 1.8275089363336040e+01 2.2718424107712885e+01 0 0 -1
695 121 7 0.0000000000000000e+00 5.3768702523509639e+01 8.4969238358559682e+00 2.3635313173278615e+01 0 0 -1
452 87 2 0.0000000000000000e+00 5.2023623681030635e+01 7.8541662985210579e+00 3.0949452314497648e+01 0 0 -1
519 96 2 0.0000000000000000e+00 4.4805875250608516e+01 1.3476349260391425e+01 2.9379686159052937e+01 -1 0 0
77 26 9 0.0000000000000000e+00 5.1669449173830365e+01 1.3571310260418260e+01 2.5095010084594847e+01 0 1 0
78 26 8 0.0000000000000000e+00 5.2543420322528696e+01 1.1341763951857349e+01 2.6314748457189999e+01 0 1 0
493 93 7 0.0000000000000000e+00 5.3924814810900870e+01 1.5601694607746490e+01 2.2423560548330776e+01 0 0 -1
451 87 7 0.0000000000000000e+00 5.0850798430725931e+01 9.8033701075177788e+00 2.9542325618320053e+01 0 0 -1
520 96 7 0.0000000000000000e+00 4.6447079212548481e+01 1.2228502749129490e+01 2.8012536602007579e+01 -1 0 0
76 26 8 0.0000000000000000e+00 4.9145310351419340e+01 1.4432958195716616e+01 2.5752271494870794e+01 0 1 0
499 93 7 0.0000000000000000e+00 4.8604196721655704e+01 1.8378258530531905e+01 2.4813106429352501e+01 0 0 -1
497 93 3 0.0000000000000000e+00 5.0754349094310754e+01 2.2012301165876170e+01 2.1011717688614297e+01 0 0 -1
699 122 4 0.0000000000000000e+00 7.7029993018361047e+00 8.2599851752833935e+00 1.0546738378986335e+01 1 1 1
801 137 7 0.0000000000000000e+00 1.0982144689829715e+01 3.0753029574045517e+01 3.3939090575987230e+01 1 0 0
712 124 3 0.0000000000000000e+00 1.6348869869009562e+01 2.4347963630423774e+01 2.5907677634751945e+01 0 0 1
710 124 1 0.0000000000000000e+00 1.3348112885857123e+01 2.6898049739224838e+01 2.9545878982468469e+01 0 0 1
711 124 2 0.0000000000000000e+00 1.5013092210039369e+01 2.5298626762168588e+01 2.8747030210455115e+01 0 0 1
715 124 2 0.0000000000000000e+00 1.7572095167643891e+01 2.1181399531998867e+01 2.9283924037082393e+01 0 0 1
716 124 7 0.0000000000000000e+00 1.4937317406679071e+01 2.0783264552294991e+01 3.0205039069625816e+01 0 0 1
769 132 4 0.0000000000000000e+00 2.6902105726452287e+01 2.7732533645250093e+01 3.2420241029298083e+01 1 0 1
771 132 2 0.0000000000000000e+00 2.9221163433276093e+01 3.0718072803896042e+01 2.8562450424758094e+01 1 0 1
714 124 3 0.0000000000000000e+00 2.0275783120029050e+01 2.2283475757652301e+01 2.7717425646046546e+01 0 0 1
713 124 4 0.0000000000000000e+00 1.9662214229446381e+01 2.4144084405433045e+01 2.4818137690617178e+01 0 0 1
72 24 8 0.0000000000000000e+00 2.6255670050951917e+01 2.9830572449294770e+01 2.3656357834648471e+01 0 0 1
766 132 7 0.0000000000000000e+00 2.4677891012678067e+01 2.6505897103948410e+01 2.5402351137651028e+01 1 0 1
768 132 3 0.0000000000000000e+00 2.5213265962199614e+01 2.5183378650657289e+01 3.1022877059308417e+01 1 0 1
767 132 2 0.0000000000000000e+00 2.5458454457487885e+01 2.5450565106548442e+01 2.7768189436872692e+01 1 0 1
361 74 2 0.0000000000000000e+00 2.9460898141050539e+01 2.0319329251162788e+01 2.7139831321620111e+01 -1 1 1
360 74 7 0.0000000000000000e+00 2.9407583213605850e+01 2.2707788197455866e+01 2.5943109847530486e+01 -1 1 1
770 132 3 0.0000000000000000e+00 2.9478663373468422e+01 2.7970374873951432e+01 2.9957324405614685e+01 1 0 1
99 33 8 0.0000000000000000e+00 3.2372354877186105e+01 2.5696007889260233e+01 2.2002686220963945e+01 1 1 0
365 74 2 0.0000000000000000e+00 3.3970175182432456e+01 1.9950602328165154e+01 2.9480483739290907e+01 -1 1 1
811 138 4 0.0000000000000000e+00 3.9363781229027516e+01 2.3614008175417137e+01 3.1584219918823504e+01 2 0 0
366 74 7 0.0000000000000000e+00 3.5041361520004465e+01 2.2454355103324620e+01 2.8961585908500286e+01 -1 1 1
810 138 3 0.0000000000000000e+00 4.2865021976012272e+01 2.3772640012970154e+01 3.2138324764473552e+01 2 0 0
98 33 9 0.0000000000000000e+00 3.2689362886140017e+01 2.4173495495579388e+01 2.4044519625806149e+01 1 1 0
160 45 4 0.0000000000000000e+00 4.3394245490816473e+01 2.8193309048949434e+01 2.5230169409328852e+01 0 0 1
255 59 7 0.0000000000000000e+00 3.8032365607063376e+01 2.3641193256119990e+01 2.2498814595990407e+01 0 1 0
157 45 7 0.0000000000000000e+00 4.2282790151161386e+01 2.9867119169066296e+01 3.2936573638685516e+01 0 0 1
158 45 2 0.0000000000000000e+00 4.2590571706438631e+01 2.9316416819992714e+01 3.0666349793924141e+01 0 0 1
97 33 8 0.0000000000000000e+00 3.5018678171569334e+01 2.3990383331090637e+01 2.5108267347212678e+01 1 1 0
256 59 2 0.0000000000000000e+00 4.0473621994443000e+01 2.3669744402160571e+01 2.3669364076608296e+01 0 1 0
159 45 3 0.0000000000000000e+00 4.1922022532234578e+01 2.7304639765816102e+01 2.8193381691526525e+01 0 0 1
257 59 3 0.0000000000000000e+00 4.3102724763831446e+01 2.1876882286864653e+01 2.4321001797041777e+01 0 1 0
742 128 3 0.0000000000000000e+00 5.4943235350348587e+01 2.6015438813984996e+01 3.0795083030855434e+01 -1 0 0
162 45 2 0.0000000000000000e+00 4.6709329899111047e+01 2.8497727911322770e+01 3.0113431891132802e+01 0 0 1
741 128 4 0.0000000000000000e+00 5.4627349720372898e+01 2.2732873853667524e+01 2.9980534082025713e+01 -1 0 0
496 93 4 0.0000000000000000e+00 5.3303709336348646e+01 2.3682606821993030e+01 2.2754282348227441e+01 0 0 -1
495 93 3 0.0000000000000000e+00 5.3808677426045733e+01 2.0957230250173577e+01 2.4653744617870355e+01 0 0 -1
163 45 7 0.0000000000000000e+00 4.6863347088065318e+01 2.8236092389025075e+01 3.2584627079859764e+01 0 0 1
375 76 2 0.0000000000000000e+00 2.3983838174339425e+01 2.0157486633754399e+01 9.7675448437089081e+00 0 1 1
743 128 2 0.0000000000000000e+00 5.3867013158727858e+01 2.6459595106759966e+01 3.3816023025553953e+01 -1 0 0
792 135 2 0.0000000000000000e+00 2.0229279219554908e+01 7.3194230070780790e+00 3.2543142626049566e+01 0 0 0
102 34 8 0.0000000000000000e+00 1.3009902084123425e+01 2.4245856118922681e+01 3.3917914912288879e+01 1 0 0
730 126 7 0.0000000000000000e+00 2.0347462741309702e+01 6.4075305700601382e+00 2.5491782190470168e+01 1 0 1
552 101 4 0.0000000000000000e+00 5.3194308677336203e+01 3.0832712490545820e+01 2.5954329273095496e+01 0 0 0
71 24 9 0.0000000000000000e+00 2.4924597989748918e+01 3.0998192483996423e+01 2.1637731211190360e+01 0 0 1
457 87 7 0.0000000000000000e+00 4.7242726834804500e+01 6.3782363325646241e+00 3.1270206396770575e+01 0 0 -1
10 4 8 0.0000000000000000e+00 2.4595653234728672e+01 6.5193197099902171e+00 2.1864709242031573e+01 1 1 1
101 34 9 0.0000000000000000e+00 1.4182407812973288e+01 2.1900750815546107e+01 3.4015416923025263e+01 1 0 0
155 44 2 0.0000000000000000e+00 3.0449542822632885e+01 6.2109899143801170e+00 2.2564612396389169e+01 0 1 0
88 30 8 0.0000000000000000e+00 1.4660240672390801e+01 3.1077528941848115e+01 3.2508489960054291e+01 1 0 1
764 131 2 0.0000000000000000e+00 6.5050589912771901e+00 1.1274570911648450e+01 4.2913758060868524e+01 0 0 0
28 10 8 0.0000000000000000e+00 7.8115928809410979e+00 1.5510416070422457e+01 3.9587941692491384e+01 0 0 0
789 135 3 0.0000000000000000e+00 1.6040453105170908e+01 1.0437147729735422e+01 3.4735288071730018e+01 0 0 0
752 130 7 0.0000000000000000e+00 1.1157131964735379e+01 1.6803386729936459e+01 4.1585229069363102e+01 0 0 0
143 43 1 0.0000000000000000e+00 1.5893146416030257e+01 1.3674235712359748e+01 4.6853117161042917e+01 -1 0 0
753 130 2 0.0000000000000000e+00 1.0497033136812332e+01 1.8881610575538762e+01 4.3134613343279653e+01 0 0 0
144 43 2 0.0000000000000000e+00 1.7714497077888957e+01 1.5420823336119774e+01 4.7047978700504530e+01 -1 0 0
719 125 3 0.0000000000000000e+00 1.1093837695178388e+01 8.5981106997056358e+00 4.1870910973928538e+01 1 1 0
763 131 3 0.0000000000000000e+00 7.3060216430226355e+00 1.1498217375048625e+01 4.6009630167838701e+01 0 0 0
720 125 4 0.0000000000000000e+00 1.4002746304820933e+01 9.4152927669327955e+00 4.3904267284863963e+01 1 1 0
721 125 3 0.0000000000000000e+00 1.5585387826504268e+01 6.6538166135308607e+00 4.2771284598684332e+01 1 1 0
148 43 2 0.0000000000000000e+00 1.8927332687474951e+01 1.8328375695281167e+01 4.1929969072842646e+01 -1 0 0
718 125 2 0.0000000000000000e+00 1.1889099783035604e+01 7.3712653352821782e+00 3.8971107591961271e+01 1 1 0
788 135 2 0.0000000000000000e+00 1.6820601961120420e+01 7.5749610506735960e+00 3.6034464167001282e+01 0 0 0
717 125 1 0.0000000000000000e+00 1.2388540885106087e+01 7.9632775991034821e+00 3.6375238373090774e+01 1 1 0
29 10 9 0.0000000000000000e+00 6.6280921164752042e+00 1.6827119794350608e+01 3.7725757198746784e+01 0 0 0
423 83 1 0.0000000000000000e+00 1.0271572778753027e+01 1.0917599201512413e+01 3.4408132800195723e+01 0 1 0
113 38 9 0.0000000000000000e+00 2.4395883971919766e+01 8.7813228990719008e+00 4.4266644008523393e+01 0 2 0
227 55 7 0.0000000000000000e+00 2.3961308766046017e+01 9.2534395861259391e+00 3.8789371177054562e+01 0 1 0
232 55 2 0.0000000000000000e+00 2.6630310219192022e+01 8.3807238325558551e+00 3.5265528528058894e+01 0 1 0
228 55 2 0.0000000000000000e+00 2.4557415298268577e+01 1.1669212301398064e+01 3.7999571584423798e+01 0 1 0
229 55 3 0.0000000000000000e+00 2.5741830287799427e+01 1.4022748887666118e+01 3.6282721169767534e+01 0 1 0
464 88 1 0.0000000000000000e+00 2.7979021584657097e+01 1.1896558239561537e+01 4.4209336342842214e+01 0 0 0
147 43 3 0.0000000000000000e+00 2.1652674494417941e+01 1.7587808815131158e+01 4.3392842129143467e+01 -1 0 0
112 38 5 0.0000000000000000e+00 2.3619724741591170e+01 1.1186572841200505e+01 4.4507109932999406e+01 0 2 0
463 88 2 0.0000000000000000e+00 2.7581746011641659e+01 1.4561640354886745e+01 4.4441047621523651e+01 0 0 0
462 88 3 0.0000000000000000e+00 2.8176030012403693e+01 1.7842910039361808e+01 4.4445757947643365e+01 0 0 0
761 131 3 0.0000000000000000e+00 6.8684381151148495e+00 6.6105965238613491e+00 4.3651033792314969e+01 0 0 0
568 103 2 0.0000000000000000e+00 1.8749928817890698e+01 1.0337754710288594e+01 4.8076620581699764e+01 0 1 0
569 103 7 0.0000000000000000e+00 2.0534288889028833e+01 1.1689230455400221e+01 4.7074325579843681e+01 0 1 0
114 38 8 0.0000000000000000e+00 2.4766155736858259e+01 7.4455260547729560e+00 4.2144232362909662e+01 0 2 0
233 55 7 0.0000000000000000e+00 2.7517411366420056e+01 7.0643336166502335e+00 3.7004352489581144e+01 0 1 0
460 88 3 0.0000000000000000e+00 3.2755023795990546e+01 1.7184789266159395e+01 4.6013985798980620e+01 0 0 0
785 134 2 0.0000000000000000e+00 3.8645506779231589e+01 1.7514469436807509e+01 3.8109100002283959e+01 -1 0 0
784 134 3 0.0000000000000000e+00 4.1035567215559880e+01 1.5589925796618177e+01 3.8747155905362121e+01 -1 0 0
783 134 4 0.0000000000000000e+00 4.0609882846578969e+01 1.3025169493889706e+01 4.1044325894594721e+01 -1 0 0
201 51 3 0.0000000000000000e+00 3.6594410793652031e+01 1.0134614141206225e+01 3.8335023172629050e+01 -1 1 0
202 51 4 0.0000000000000000e+00 3.5512225359952367e+01 1.0201714666451602e+01 4.1706109642168741e+01 -1 1 0
459 88 2 0.0000000000000000e+00 3.1850381647986126e+01 1.3993910600379619e+01 4.5531052325128627e+01 0 0 0
782 134 3 0.0000000000000000e+00 4.1262218954958165e+01 1.4898849615940369e+01 4.3929207162422045e+01 -1 0 0
200 51 2 0.0000000000000000e+00 3.4428281994520738e+01 8.3199927553555657e+00 3.6621413013619531e+01 -1 1 0
203 51 3 0.0000000000000000e+00 3.7385089533826445e+01 7.4370588106734221e+00 4.2599193608153037e+01 -1 1 0
458 88 7 0.0000000000000000e+00 3.2345171503366274e+01 1.1454430144613907e+01 4.5548677620414949e+01 0 0 0
765 131 7 0.0000000000000000e+00 6.0782538491594247e+00 1.2023471746373282e+01 4.0500400057216964e+01 0 0 0
557 102 2 0.0000000000000000e+00 4.5404270873563895e+01 9.3585337756519955e+00 4.4206888564054417e+01 -1 0 0
558 102 3 0.0000000000000000e+00 4.4386838646431407e+01 7.2783057604734660e+00 4.1907308258071780e+01 -1 0 0
600 108 3 0.0000000000000000e+00 4.9102076347248172e+01 1.3218733088229760e+01 3.4599391028994845e+01 -2 1 -1
759 131 7 0.0000000000000000e+00 5.1598954142274238e+01 8.8513098611585939e+00 4.3809952110459292e+01 -1 0 0
48 16 8 0.0000000000000000e+00 5.1427188726670664e+01 1.2559516972242717e+01 4.5406795394357083e+01 -1 -1 1
603 108 2 0.0000000000000000e+00 5.3612050122800369e+01 1.2910945409616234e+01 3.4935884367836145e+01 -2 1 -1
384 77 4 0.0000000000000000e+00 3.5265768619047698e+01 2.9759469982378139e+01 3.8537834272010421e+01 0 0 0
602 108 3 0.0000000000000000e+00 5.2627755113352933e+01 1.0069100210807875e+01 3.5966310715485058e+01 -2 1 -1
599 108 2 0.0000000000000000e+00 5.0506797772633590e+01 1.5292210155782007e+01 3.6755489455645595e+01 -2 1 -1
598 108 7 0.0000000000000000e+00 5.1969141426392284e+01 1.6577358034504922e+01 3.8542536246051995e+01 -2 1 -1
47 16 6 0.0000000000000000e+00 5.2341417315605696e+01 1.4089512590926867e+01 4.3736896282192092e+01 -1 -1 1
46 16 5 0.0000000000000000e+00 5.1337206983546658e+01 1.6033666253778950e+01 4.2415515476966590e+01 -1 -1 1
760 131 2 0.0000000000000000e+00 5.3555729219242075e+01 6.9910367399418059e+00 4.3815661946995682e+01 -1 0 0
128 40 7 0.0000000000000000e+00 4.8146828420364940e+01 1.3883697879094370e+01 4.7305197514253145e+01 -1 0 0
381 77 7 0.0000000000000000e+00 2.7539174989663408e+01 3.0558399796186698e+01 4.1099406699693617e+01 0 0 0
149 43 1 0.0000000000000000e+00 1.6631819179240651e+01 1.8954092210671771e+01 4.1044426460667502e+01 -1 0 0
739 128 2 0.0000000000000000e+00 7.4995704302761332e+00 2.3222903809090148e+01 3.4882771050353227e+01 0 0 0
758 130 7 0.0000000000000000e+00 1.0887115931255416e+01 2.0214163246267731e+01 3.8258718117040729e+01 0 0 0
757 130 2 0.0000000000000000e+00 1.1761452669377572e+01 2.1260969948840849e+01 4.0620074389377820e+01 0 0 0
282 62 7 0.0000000000000000e+00 1.6712872863132997e+01 2.3948854600180891e+01 3.8964229273005508e+01 1 -1 0
613 110 2 0.0000000000000000e+00 1.7865269083961145e+01 2.7428653897239816e+01 3.5072094504237825e+01 1 0 0
756 130 3 0.0000000000000000e+00 1.3751466360601373e+01 2.2748982707577287e+01 4.2488393990409442e+01 0 0 0
612 110 7 0.0000000000000000e+00 1.5211493488531914e+01 2.7506240418211291e+01 3.5001959717858952e+01 1 0 0
754 130 3 0.0000000000000000e+00 9.4864182365410556e+00 2.1419688560115144e+01 4.5038980457838441e+01 0 0 0
199 51 7 0.0000000000000000e+00 3.3038565734232527e+01 6.3186452421990218e+00 3.5799011955605422e+01 -1 1 0
100 34 8 0.0000000000000000e+00 1.5581399969608585e+01 2.0919078715973285e+01 3.6423811854568491e+01 1 0 0
138 42 3 0.0000000000000000e+00 7.9205840702959343e+00 2.8520328814633523e+01 4.5425067076811182e+01 1 -1 0
139 42 4 0.0000000000000000e+00 8.0753750135067133e+00 2.6031187542234367e+01 4.2807528786400930e+01 1 -1 0
604 108 7 0.0000000000000000e+00 5.5118629872902787e+01 1.4836883840495151e+01 3.4669336318982083e+01 -2 1 -1
738 128 7 0.0000000000000000e+00 9.4220094488246779e+00 2.4806685836123485e+01 3.5602180082605884e+01 0 0 0
30 10 8 0.0000000000000000e+00 7.1802624508635216e+00 1.9221401467425615e+01 3.7671000508767172e+01 0 0 0
140 42 3 0.0000000000000000e+00 8.1287570164164276e+00 2.8623263789394322e+01 4.0434853987938368e+01 1 -1 0
137 42 2 0.0000000000000000e+00 5.5349887002150268e+01 3.0309702184797281e+01 4.4800434891312086e+01 0 -1 0
617 110 2 0.0000000000000000e+00 1.8502580899628001e+01 2.9254468418835362e+01 3.8672821989906900e+01 1 0 0
129 41 7 0.0000000000000000e+00 4.9684319017465917e+01 2.7139314339112122e+01 5.4735336304419249e+01 -1 -1 -1
219 53 7 0.0000000000000000e+00 2.2816038303443896e+01 3.0574049663466241e+01 4.4643679941382409e+01 1 0 1
276 62 7 0.0000000000000000e+00 1.8130805789081759e+01 1.7585750180010852e+01 3.6983117511344851e+01 1 -1 0
615 110 4 0.0000000000000000e+00 2.3067256049742916e+01 2.7505034813738092e+01 3.6620682132644447e+01 1 0 0
277 62 2 0.0000000000000000e+00 2.0675907930495246e+01 1.8174503414951481e+01 3.7620197019796336e+01 1 -1 0
214 53 2 0.0000000000000000e+00 1.2309646904960042e+01 3.0880912463695250e+01 4.5785566266477858e+01 1 0 1
281 62 2 0.0000000000000000e+00 1.8894087393990372e+01 2.3695859602503401e+01 4.0447686505663420e+01 1 -1 0